 Gaussian 16, Revision C.01,
 Gaussian 16:  ES64L-G16RevC.01  3-Jul-2019

 ----------------------------------------------------------------------
 #UM06/Def2TZVP OPT Freq=Noraman INT(grid=ultrafine) EmpiricalDispersio
 n=GD3 SCF=XQC Pop=NPA
 ----------------------------------------------------------------------

 ---------------------------------
 glydehydratedlinear.CONF1.optfreq
 ---------------------------------
 Symbolic Z-matrix:
 Charge = -1 Multiplicity = 1

 SCF Done:  E(UM06) =  -814.387439004     A.U. after   17 cycles
 SCF Done:  E(UM06) =  -814.389659193     A.U. after   14 cycles
 SCF Done:  E(UM06) =  -814.374012082     A.U. after   16 cycles
 SCF Done:  E(UM06) =  -814.388472668     A.U. after   13 cycles
 SCF Done:  E(UM06) =  -814.390100062     A.U. after   11 cycles
 SCF Done:  E(UM06) =  -814.387614915     A.U. after   14 cycles
 SCF Done:  E(UM06) =  -814.390621139     A.U. after   13 cycles
 SCF Done:  E(UM06) =  -814.390676489     A.U. after   12 cycles
 SCF Done:  E(UM06) =  -814.390706044     A.U. after   11 cycles
 SCF Done:  E(UM06) =  -814.390709135     A.U. after   10 cycles
 SCF Done:  E(UM06) =  -814.390711738     A.U. after    9 cycles
 SCF Done:  E(UM06) =  -814.390712557     A.U. after    8 cycles
 SCF Done:  E(UM06) =  -814.390712682     A.U. after    8 cycles
 SCF Done:  E(UM06) =  -814.390712714     A.U. after    7 cycles
 Optimization completed.
    -- Stationary point found.
 Normal termination of Gaussian 16 at Mon Sep 23 15:14:13 2024.

 ------------------------------------------------------------------
 #N Geom=AllCheck Guess=TCheck SCRF=Check GenChk UM06/def2TZVP Freq
 ------------------------------------------------------------------

 Structure from the checkpoint file:  "glydehydratedlinear.CONF1.chk"
 ---------------------------------
 glydehydratedlinear.CONF1.optfreq
 ---------------------------------
 Charge = -1 Multiplicity = 1

                         Standard orientation:
 ---------------------------------------------------------------------
 Center     Atomic      Atomic             Coordinates (Angstroms)
 Number     Number       Type             X           Y           Z
 ---------------------------------------------------------------------
      1          6           0        2.449200   -0.172887    0.161389
      2          8           0        2.545473   -0.504945   -1.034755
      3          8           0        3.214415   -0.346146    1.115159
      4          6           0        1.118028    0.561349    0.516276
      5          7           0        0.456564    1.019442   -0.676866
      6          1           0        1.310076    1.380112    1.217404
      7          1           0        0.483960   -0.177960    1.061771
      8          6           0       -0.921787    1.223684   -0.562824
      9         15           0       -1.904617   -0.245299    0.049848
     10          1           0       -1.390310    1.486417   -1.519007
     11          1           0       -1.175567    2.009221    0.158117
     12          8           0       -3.002396    0.098362    0.951253
     13          8           0       -1.571512   -1.527534   -0.554617
     14          1           0        0.784665    0.414819   -1.433312
 ---------------------------------------------------------------------

 SCF Done:  E(UM06) =  -814.390712714     A.U. after    1 cycles

 The electronic state is 1-A.
 Alpha  occ. eigenvalues --  -77.19797 -19.09473 -19.09168 -18.97717 -18.96929
 Alpha  occ. eigenvalues --  -14.26096 -10.19070 -10.15117 -10.11962  -6.61235
 Alpha  occ. eigenvalues --   -4.73598  -4.72884  -4.72807  -0.94596  -0.89281
 Alpha  occ. eigenvalues --   -0.87998  -0.81935  -0.79590  -0.62358  -0.53816
 Alpha  occ. eigenvalues --   -0.43797  -0.41773  -0.36752  -0.35323  -0.33711
 Alpha  occ. eigenvalues --   -0.31991  -0.31169  -0.29882  -0.28666  -0.26095
 Alpha  occ. eigenvalues --   -0.24495  -0.23839  -0.23660  -0.22161  -0.21649
 Alpha  occ. eigenvalues --   -0.13130  -0.09808  -0.08981  -0.07969
 Alpha virt. eigenvalues --    0.06853   0.10535   0.16116   0.17660   0.20274
 Alpha virt. eigenvalues --    0.21531   0.22078   0.24185   0.25483   0.27209
 Alpha virt. eigenvalues --    0.28746   0.31397   0.31538   0.33356   0.35217

  Beta  occ. eigenvalues --  -77.19797 -19.09473 -19.09168 -18.97717 -18.96929
  Beta  occ. eigenvalues --  -14.26096 -10.19070 -10.15117 -10.11962  -6.61235
  Beta  occ. eigenvalues --   -4.73598  -4.72884  -4.72807  -0.94596  -0.89281
  Beta  occ. eigenvalues --   -0.87998  -0.81935  -0.79590  -0.62358  -0.53816
  Beta  occ. eigenvalues --   -0.43797  -0.41773  -0.36752  -0.35323  -0.33711
  Beta  occ. eigenvalues --   -0.31991  -0.31169  -0.29882  -0.28666  -0.26095
  Beta  occ. eigenvalues --   -0.24495  -0.23839  -0.23660  -0.22161  -0.21649
  Beta  occ. eigenvalues --   -0.13130  -0.09808  -0.08981  -0.07969
  Beta virt. eigenvalues --    0.06853   0.10535   0.16116   0.17660   0.20274
  Beta virt. eigenvalues --    0.21531   0.22078   0.24185   0.25483   0.27209
  Beta virt. eigenvalues --    0.28746   0.31397   0.31538   0.33356   0.35217

 Mulliken charges and spin densities:
               1          2
     1  C    0.456752   0.000000
     2  O   -0.590487   0.000000
     3  O   -0.587324   0.000000
     4  C   -0.165589   0.000000
     5  N   -0.312390   0.000000
     6  H    0.064900   0.000000
     7  H    0.040123   0.000000
     8  C   -0.112821   0.000000
     9  P    0.689640   0.000000
    10  H    0.095945   0.000000
    11  H    0.116747   0.000000
    12  O   -0.471656   0.000000
    13  O   -0.437828   0.000000
    14  H    0.213989   0.000000
 Sum of Mulliken charges =  -1.00000   0.00000

 Dipole moment (field-independent basis, Debye):
    X=             -8.0504    Y=              4.0346    Z=             -1.3696  Tot=              9.1084
 Quadrupole moment (field-independent basis, Debye-Ang):
   XX=           -111.1931   YY=            -66.1007   ZZ=            -67.2431
   XY=              1.9440   XZ=              3.2807   YZ=             -2.4404

  Exact polarizability:     103.347      -1.650      71.496      -1.532       1.544      74.294
 Approx polarizability:     129.451      -2.592     105.566      -5.831       5.200     118.842

 Summary of Natural Population Analysis:

                                       Natural Population
                Natural  -----------------------------------------------
    Atom  No    Charge         Core      Valence    Rydberg      Total
 -----------------------------------------------------------------------
      C    1    0.38147      0.99978     1.59623    0.02252     2.61853
      O    2   -0.38375      0.99988     3.37178    0.01209     4.38375
      O    3   -0.37447      0.99988     3.36210    0.01249     4.37447
      C    4   -0.16554      0.99965     2.15465    0.01124     3.16554
      N    5   -0.30824      0.99976     2.79245    0.01602     3.80824
      H    6    0.08983      0.00000     0.40906    0.00112     0.41017
      H    7    0.07000      0.00000     0.42802    0.00198     0.43000
      C    8   -0.27580      0.99966     2.26187    0.01426     3.27580
      P    9    1.07130      4.99927     1.35447    0.07496     6.42870
      H   10    0.11080      0.00000     0.38833    0.00087     0.38920
      H   11    0.10388      0.00000     0.39481    0.00131     0.39612
      O   12   -0.51883      0.99991     3.50089    0.01802     4.51883
      O   13   -0.50711      0.99991     3.48842    0.01878     4.50711
      H   14    0.20646      0.00000     0.29189    0.00165     0.29354
 =======================================================================
   * Total *   -0.50000     12.99771    25.79496    0.20733    39.00000

                      1                      2                      3
                      A                      A                      A
 Frequencies --     41.3388                54.6314                66.4220
 Red. masses --     11.0887                 9.5769                12.2636
 Frc consts  --      0.0112                 0.0168                 0.0319
 IR Inten    --      2.7693                 4.5884                 1.3294

                      4                      5                      6
                      A                      A                      A
 Frequencies --    156.0057               162.9716               238.2559
 Red. masses --      3.4502                 5.1667                 4.3279
 Frc consts  --      0.0495                 0.0809                 0.1447
 IR Inten    --      2.7611                 8.6193                 7.8887

                      7                      8                      9
                      A                      A                      A
 Frequencies --    290.8915               325.5249               397.0170
 Red. masses --      6.2391                 3.3156                 5.2249
 Frc consts  --      0.3111                 0.2070                 0.4852
 IR Inten    --     47.9938                 4.1046                60.8882

                     10                     11                     12
                      A                      A                      A
 Frequencies --    465.6077               512.7874               597.4609
 Red. masses --      5.5310                 6.9155                 3.7705
 Frc consts  --      0.7065                 1.0714                 0.7930
 IR Inten    --      3.1495                37.7846                 2.7144

                     13                     14                     15
                      A                      A                      A
 Frequencies --    634.6966               702.9225               799.9652
 Red. masses --      3.8667                 4.4767                 1.2544
 Frc consts  --      0.9178                 1.3032                 0.4729
 IR Inten    --     29.3783                16.7712               106.6615

                     16                     17                     18
                      A                      A                      A
 Frequencies --    843.0506               905.1648               996.8655
 Red. masses --      2.5873                 2.7531                 2.4865
 Frc consts  --      1.0834                 1.3290                 1.4559
 IR Inten    --     68.5455                76.0342                 1.6867

                     19                     20                     21
                      A                      A                      A
 Frequencies --   1068.0468              1173.7749              1181.5210
 Red. masses --      1.6643                 1.3507                 4.2878
 Frc consts  --      1.1186                 1.0964                 3.5267
 IR Inten    --      4.7954                 2.8851               175.2003

                     22                     23                     24
                      A                      A                      A
 Frequencies --   1231.2758              1235.7258              1259.2272
 Red. masses --      3.1432                 1.3376                 1.3943
 Frc consts  --      2.8076                 1.2034                 1.3026
 IR Inten    --     14.3333                11.9176                 5.5696

                     25                     26                     27
                      A                      A                      A
 Frequencies --   1285.0164              1371.6692              1414.6663
 Red. masses --      1.3940                 4.3341                 1.6846
 Frc consts  --      1.3563                 4.8044                 1.9863
 IR Inten    --      1.0693               119.3062               317.1664

                     28                     29                     30
                      A                      A                      A
 Frequencies --   1427.0949              1451.9315              1465.1993
 Red. masses --      1.1992                 4.6592                 1.3118
 Frc consts  --      1.4390                 5.7870                 1.6592
 IR Inten    --     19.7515               138.3671                58.8049

                     31                     32                     33
                      A                      A                      A
 Frequencies --   1769.4514              2812.9443              3006.3865
 Red. masses --     11.0078                 1.0716                 1.0574
 Frc consts  --     20.3061                 4.9959                 5.6310
 IR Inten    --    551.6813                94.6451                43.0963

                     34                     35                     36
                      A                      A                      A
 Frequencies --   3045.3740              3064.7053              3400.7594
 Red. masses --      1.0853                 1.1050                 1.0741
 Frc consts  --      5.9306                 6.1151                 7.3189
 IR Inten    --     51.8476                 7.6329               161.9651

 - Thermochemistry -
 -------------------
 Temperature   298.150 Kelvin.  Pressure   1.00000 Atm.
 Atom     1 has atomic number  6 and mass  12.00000

 Molecular mass:   149.99562 amu.
 Principal axes and moments of inertia in atomic units:
                           1         2         3
     Eigenvalues --   598.032652671.674012718.58465
           X            0.99998  -0.00432   0.00535
           Y            0.00473   0.99677  -0.08013
           Z           -0.00499   0.08015   0.99677
 This molecule is an asymmetric top.
 Rotational symmetry number  1.
 Warning -- assumption of classical behavior for rotation
           may cause significant error
 Rotational temperatures (Kelvin)      0.14483     0.03242     0.03186
 Rotational constants (GHZ):           3.01780     0.67551     0.66385
 Zero-point vibrational energy     244375.2 (Joules/Mol)
                                   58.40708 (Kcal/Mol)
 Warning -- explicit consideration of  12 degrees of freedom as
           vibrations may cause significant error
 Vibrational temperatures:     59.48    78.60    95.57   224.46   234.48
          (Kelvin)            342.80   418.53   468.36   571.22   669.91
                              737.79   859.61   913.19  1011.35  1150.97
                             1212.96  1302.33  1434.27  1536.68  1688.80
                             1699.95  1771.53  1777.93  1811.75  1848.85
                             1973.53  2035.39  2053.27  2089.01  2108.09
                             2545.85  4047.20  4325.52  4381.61  4409.43
                             4892.93

 Zero-point correction=                           0.093078 (Hartree/Particle)
 Thermal correction to Energy=                    0.102550
 Thermal correction to Enthalpy=                  0.103494
 Thermal correction to Gibbs Free Energy=         0.056434
 Sum of electronic and zero-point Energies=           -814.297635
 Sum of electronic and thermal Energies=              -814.288162
 Sum of electronic and thermal Enthalpies=            -814.287218
 Sum of electronic and thermal Free Energies=         -814.334279

                     E (Thermal)             CV                S
                      KCal/Mol        Cal/Mol-Kelvin    Cal/Mol-Kelvin
 Total                   64.351             31.678             99.047
 Electronic               0.000              0.000              0.000
 Translational            0.889              2.981             40.927
 Rotational               0.889              2.981             29.853
 Vibrational             62.574             25.716             28.267
 Vibration     1          0.594              1.981              5.194
 Vibration     2          0.596              1.976              4.642
 Vibration     3          0.598              1.970              4.257
 Vibration     4          0.620              1.896              2.598
 Vibration     5          0.623              1.888              2.515
 Vibration     6          0.656              1.782              1.816
 Vibration     7          0.687              1.691              1.469
 Vibration     8          0.710              1.624              1.282
 Vibration     9          0.764              1.477              0.974
 Vibration    10          0.823              1.326              0.750
 Vibration    11          0.868              1.222              0.627
 Vibration    12          0.955              1.037              0.454

 Optimization completed.
    -- Stationary point found.
 Normal termination of Gaussian 16 at Mon Sep 23 15:19:55 2024.
