 Gaussian 16, Revision C.01,
 Gaussian 16:  ES64L-G16RevC.01  3-Jul-2019

 ----------------------------------------------------------------------
 #UM06/Def2TZVP OPT Freq=Noraman INT(grid=ultrafine) EmpiricalDispersio
 n=GD3 SCF=XQC Pop=NPA
 ----------------------------------------------------------------------

 ---------------------------------
 glydehydratedcyclic.CONF1.optfreq
 ---------------------------------
 Symbolic Z-matrix:
 Charge = -1 Multiplicity = 1

 SCF Done:  E(UM06) =  -814.452170628     A.U. after   15 cycles
 SCF Done:  E(UM06) =  -814.454849198     A.U. after   12 cycles
 SCF Done:  E(UM06) =  -814.454970537     A.U. after   11 cycles
 SCF Done:  E(UM06) =  -814.454709428     A.U. after   12 cycles
 SCF Done:  E(UM06) =  -814.455068389     A.U. after   10 cycles
 SCF Done:  E(UM06) =  -814.455072423     A.U. after    8 cycles
 Optimization completed.
    -- Stationary point found.
 Normal termination of Gaussian 16 at Mon Sep 23 15:03:58 2024.

 ------------------------------------------------------------------
 #N Geom=AllCheck Guess=TCheck SCRF=Check GenChk UM06/def2TZVP Freq
 ------------------------------------------------------------------

 Structure from the checkpoint file:  "glydehydratedcyclic.CONF1.chk"
 ---------------------------------
 glydehydratedcyclic.CONF1.optfreq
 ---------------------------------
 Charge = -1 Multiplicity = 1

                         Standard orientation:
 ---------------------------------------------------------------------
 Center     Atomic      Atomic             Coordinates (Angstroms)
 Number     Number       Type             X           Y           Z
 ---------------------------------------------------------------------
      1          7           0        0.585895    1.797658    0.102010
      2          6           0       -0.574597    1.340504   -0.667199
      3         15           0       -1.179706   -0.222314    0.047293
      4          1           0       -0.292513    1.219200   -1.718799
      5          1           0       -1.369097    2.090420   -0.622483
      6          8           0       -2.122828   -0.930326   -0.832518
      7          8           0        0.300375   -1.083234   -0.084760
      8          6           0        1.713263    0.914202   -0.092110
      9          1           0        0.305286    1.749460    1.078819
     10          6           0        1.520689   -0.599721   -0.013614
     11          1           0        2.510501    1.161127    0.612666
     12          1           0        2.135128    1.090102   -1.092041
     13          8           0        2.492356   -1.313506    0.041494
     14          8           0       -1.376293    0.015927    1.495273
 ---------------------------------------------------------------------

 SCF Done:  E(UM06) =  -814.455072423     A.U. after    1 cycles

 The electronic state is 1-A.
 Alpha  occ. eigenvalues --  -77.12899 -19.08973 -19.04658 -18.98477 -18.98433
 Alpha  occ. eigenvalues --  -14.25456 -10.22785 -10.14856 -10.12119  -6.53705
 Alpha  occ. eigenvalues --   -4.65977  -4.65521  -4.65352  -0.97536  -0.89849
 Alpha  occ. eigenvalues --   -0.83887  -0.80299  -0.78923  -0.61209  -0.53768
 Alpha  occ. eigenvalues --   -0.49248  -0.41699  -0.38172  -0.35602  -0.33777
 Alpha  occ. eigenvalues --   -0.32462  -0.30581  -0.26615  -0.25601  -0.25370
 Alpha  occ. eigenvalues --   -0.23055  -0.22356  -0.19846  -0.18483  -0.16182
 Alpha  occ. eigenvalues --   -0.14209  -0.13558  -0.12344  -0.09837
 Alpha virt. eigenvalues --    0.14669   0.15982   0.19089   0.19821   0.22491
 Alpha virt. eigenvalues --    0.23359   0.25003   0.26906   0.28692   0.29381
 Alpha virt. eigenvalues --    0.30702   0.31604   0.32568   0.34883   0.37368

  Beta  occ. eigenvalues --  -77.12899 -19.08973 -19.04658 -18.98477 -18.98433
  Beta  occ. eigenvalues --  -14.25456 -10.22785 -10.14856 -10.12119  -6.53705
  Beta  occ. eigenvalues --   -4.65977  -4.65521  -4.65352  -0.97536  -0.89849
  Beta  occ. eigenvalues --   -0.83887  -0.80299  -0.78923  -0.61209  -0.53768
  Beta  occ. eigenvalues --   -0.49248  -0.41699  -0.38172  -0.35602  -0.33777
  Beta  occ. eigenvalues --   -0.32462  -0.30581  -0.26615  -0.25601  -0.25370
  Beta  occ. eigenvalues --   -0.23055  -0.22356  -0.19846  -0.18483  -0.16182
  Beta  occ. eigenvalues --   -0.14209  -0.13558  -0.12344  -0.09837
  Beta virt. eigenvalues --    0.14669   0.15982   0.19089   0.19821   0.22491
  Beta virt. eigenvalues --    0.23359   0.25003   0.26906   0.28692   0.29381
  Beta virt. eigenvalues --    0.30702   0.31604   0.32568   0.34883   0.37368

 Mulliken charges and spin densities:
               1          2
     1  N   -0.342033   0.000000
     2  C   -0.179211   0.000000
     3  P    0.743430   0.000000
     4  H    0.074491   0.000000
     5  H    0.073777   0.000000
     6  O   -0.604808   0.000000
     7  O   -0.355655   0.000000
     8  C   -0.174475   0.000000
     9  H    0.189722   0.000000
    10  C    0.482864   0.000000
    11  H    0.087885   0.000000
    12  H    0.085439   0.000000
    13  O   -0.468250   0.000000
    14  O   -0.613177   0.000000
 Sum of Mulliken charges =  -1.00000   0.00000

 Dipole moment (field-independent basis, Debye):
    X=              3.0314    Y=              4.2074    Z=             -1.1591  Tot=              5.3137
 Quadrupole moment (field-independent basis, Debye-Ang):
   XX=            -84.2301   YY=            -71.9039   ZZ=            -66.0854
   XY=              0.0604   XZ=              0.6648   YZ=             -1.4102

  Exact polarizability:      87.678      -0.722      71.263       1.723      -0.065      64.126
 Approx polarizability:     114.785      -2.214      95.392       2.891       2.698      96.321

 Summary of Natural Population Analysis:

                                       Natural Population
                Natural  -----------------------------------------------
    Atom  No    Charge         Core      Valence    Rydberg      Total
 -----------------------------------------------------------------------
      N    1   -0.31527      0.99980     2.80002    0.01545     3.81527
      C    2   -0.31966      0.99968     2.30565    0.01434     3.31966
      P    3    1.17313      4.99929     1.25087    0.07672     6.32687
      H    4    0.09446      0.00000     0.40449    0.00104     0.40554
      H    5    0.10169      0.00000     0.39761    0.00069     0.39831
      O    6   -0.56977      0.99989     3.55425    0.01563     4.56977
      O    7   -0.37940      0.99984     3.36574    0.01382     4.37940
      C    8   -0.16392      0.99963     2.15414    0.01016     3.16392
      H    9    0.18442      0.00000     0.31426    0.00132     0.31558
      C   10    0.39382      0.99970     1.58798    0.01849     2.60618
      H   11    0.10308      0.00000     0.39625    0.00067     0.39692
      H   12    0.09589      0.00000     0.40315    0.00096     0.40411
      O   13   -0.31628      0.99987     3.30254    0.01387     4.31628
      O   14   -0.58219      0.99990     3.56674    0.01555     4.58219
 =======================================================================
   * Total *   -0.50000     12.99760    25.80367    0.19873    39.00000

                      1                      2                      3
                      A                      A                      A
 Frequencies --     73.0809                97.9516               224.3069
 Red. masses --     12.2760                 3.0724                 4.3637
 Frc consts  --      0.0386                 0.0174                 0.1294
 IR Inten    --      2.6617                 2.0441                 5.1903

                      4                      5                      6
                      A                      A                      A
 Frequencies --    285.8809               299.7634               367.4322
 Red. masses --      5.5175                 4.5146                 3.5026
 Frc consts  --      0.2657                 0.2390                 0.2786
 IR Inten    --     17.2421                 4.7180                 1.0733

                      7                      8                      9
                      A                      A                      A
 Frequencies --    399.9926               419.2754               481.5672
 Red. masses --      5.3201                10.4791                 8.3559
 Frc consts  --      0.5015                 1.0854                 1.1417
 IR Inten    --     10.7358                12.0979               112.6106

                     10                     11                     12
                      A                      A                      A
 Frequencies --    502.0840               539.1624               597.5634
 Red. masses --      5.0026                 3.0346                 5.9672
 Frc consts  --      0.7430                 0.5197                 1.2554
 IR Inten    --     22.6173                35.0348                44.5640

                     13                     14                     15
                      A                      A                      A
 Frequencies --    738.2317               765.7226               846.0030
 Red. masses --      3.3612                 4.9252                 1.9552
 Frc consts  --      1.0793                 1.7014                 0.8245
 IR Inten    --     34.3794                61.4623                60.9009

                     16                     17                     18
                      A                      A                      A
 Frequencies --    871.7218               953.4239               954.5982
 Red. masses --      1.8994                 2.5555                 5.9842
 Frc consts  --      0.8504                 1.3686                 3.2129
 IR Inten    --    122.5607                 8.1740               108.0005

                     19                     20                     21
                      A                      A                      A
 Frequencies --   1053.2105              1139.1105              1152.6153
 Red. masses --      1.5819                 7.0404                 2.5033
 Frc consts  --      1.0338                 5.3824                 1.9594
 IR Inten    --     14.1226               243.0683                33.2768

                     22                     23                     24
                      A                      A                      A
 Frequencies --   1194.6606              1254.5229              1310.3757
 Red. masses --      1.5886                 1.5161                 1.2582
 Frc consts  --      1.3358                 1.4058                 1.2729
 IR Inten    --      5.2878                33.6350                11.8148

                     25                     26                     27
                      A                      A                      A
 Frequencies --   1330.0045              1340.8146              1371.9746
 Red. masses --      1.7413                 4.4388                12.6505
 Frc consts  --      1.8148                 4.7017                14.0298
 IR Inten    --     35.9340               254.1422               301.9823

                     28                     29                     30
                      A                      A                      A
 Frequencies --   1425.9217              1436.8686              1482.3223
 Red. masses --      1.0871                 1.0930                 1.1933
 Frc consts  --      1.3023                 1.3296                 1.5448
 IR Inten    --      1.0527                 9.8572                20.4822

                     31                     32                     33
                      A                      A                      A
 Frequencies --   1793.8158              2995.5124              3024.5111
 Red. masses --     12.5941                 1.0693                 1.0593
 Frc consts  --     23.8766                 5.6532                 5.7095
 IR Inten    --    507.1125                40.8371                38.9306

                     34                     35                     36
                      A                      A                      A
 Frequencies --   3085.2113              3086.8750              3463.6475
 Red. masses --      1.1036                 1.0940                 1.0728
 Frc consts  --      6.1892                 6.1418                 7.5826
 IR Inten    --     30.7984                18.5673                11.6789

 - Thermochemistry -
 -------------------
 Temperature   298.150 Kelvin.  Pressure   1.00000 Atm.
 Atom     1 has atomic number  7 and mass  14.00307

 Molecular mass:   149.99562 amu.
 Principal axes and moments of inertia in atomic units:
                           1         2         3
     Eigenvalues --   759.887171391.484231732.09333
           X            0.99989   0.01418   0.00305
           Y           -0.01411   0.99967  -0.02138
           Z           -0.00336   0.02133   0.99977
 This molecule is an asymmetric top.
 Rotational symmetry number  1.
 Warning -- assumption of classical behavior for rotation
           may cause significant error
 Rotational temperatures (Kelvin)      0.11398     0.06225     0.05001
 Rotational constants (GHZ):           2.37501     1.29699     1.04194
 Zero-point vibrational energy     253367.5 (Joules/Mol)
                                   60.55628 (Kcal/Mol)
 Warning -- explicit consideration of  12 degrees of freedom as
           vibrations may cause significant error
 Vibrational temperatures:    105.15   140.93   322.73   411.32   431.29
          (Kelvin)            528.65   575.50   603.24   692.87   722.39
                              775.73   859.76  1062.15  1101.70  1217.21
                             1254.21  1371.76  1373.45  1515.33  1638.93
                             1658.36  1718.85  1804.98  1885.34  1913.58
                             1929.13  1973.97  2051.58  2067.33  2132.73
                             2580.90  4309.87  4351.60  4438.93  4441.32
                             4983.42

 Zero-point correction=                           0.096503 (Hartree/Particle)
 Thermal correction to Energy=                    0.104566
 Thermal correction to Enthalpy=                  0.105511
 Thermal correction to Gibbs Free Energy=         0.063175
 Sum of electronic and zero-point Energies=           -814.358570
 Sum of electronic and thermal Energies=              -814.350506
 Sum of electronic and thermal Enthalpies=            -814.349562
 Sum of electronic and thermal Free Energies=         -814.391897

                     E (Thermal)             CV                S
                      KCal/Mol        Cal/Mol-Kelvin    Cal/Mol-Kelvin
 Total                   65.616             29.685             89.103
 Electronic               0.000              0.000              0.000
 Translational            0.889              2.981             40.927
 Rotational               0.889              2.981             28.995
 Vibrational             63.839             23.723             19.181
 Vibration     1          0.599              1.967              4.069
 Vibration     2          0.603              1.951              3.495
 Vibration     3          0.649              1.804              1.924
 Vibration     4          0.684              1.700              1.498
 Vibration     5          0.692              1.674              1.418
 Vibration     6          0.740              1.539              1.090
 Vibration     7          0.766              1.470              0.963
 Vibration     8          0.782              1.428              0.894
 Vibration     9          0.838              1.291              0.706
 Vibration    10          0.857              1.245              0.653
 Vibration    11          0.894              1.163              0.567
 Vibration    12          0.955              1.037              0.454

                           ! Non-Optimized Parameters !
 Normal termination of Gaussian 16 at Mon Sep 23 15:09:35 2024.
